Title: (no title)
Date: 9:11:24 PM, Fri Apr 6, 2012
Plotname: DC Analysis `VGS_SWEEP': VDS = (0 -> 3.3)
Flags: real
No. Variables:        4
No. Points:       11
Variables:	0	VDS	sweep
		1	MN1:gm	S plot=0 grid=0
		2	MN1:gds	S plot=0 grid=0
		3	vdd!	V plot=0 grid=0
Values:
 0	0	0	0.000414602636393273
	0
 1	0.33	9.90476108004614e-05	0.000205465162634886
	0
 2	0.66	0.000189524158483224	5.36960827613444e-05
	0
 3	0.99	0.000217272247631984	1.58350557529554e-05
	0
 4	1.32	0.000223805017124724	9.69052333311649e-06
	0
 5	1.65	0.000226786229815174	7.75517091819105e-06
	0
 6	1.98	0.000228656092085289	6.9159994121523e-06
	0
 7	2.31	0.000230044604256754	6.48414778140352e-06
	0
 8	2.64	0.000231176726862591	6.25651177390213e-06
	0
 9	2.97	0.000232136321762223	6.24603915931254e-06
	0
 10	3.3	0.000232952894235448	6.71528317192851e-06
	0
