nutconv v0.1

INTRODUCTION

Motivation: required a fast tool to convert nutascii format to
other formats, namely, CSV. This way spectre output simulation
data can be reused in other programs (eg.: Matlab, gnuplot, etc.).

It is known that using Ocean ocnPrint function one can actually
print the signals in a formated string however that requires the
usage of Ocean to do all the simulation (using selectResults with
spectre made psf results not always works).


EXAMPLE

-- vdssweep.nut file start --
Title: (no title)
Date: 9:11:24 PM, Fri Apr 6, 2012
Plotname: DC Analysis `VGS_SWEEP': VDS = (0 -> 3.3)
Flags: real
No. Variables:        4
No. Points:       11
Variables:      0       VDS     sweep
1       MN1:gm  S plot=0 grid=0
2       MN1:gds S plot=0 grid=0
3       vdd!    V plot=0 grid=0
Values:
0      0       0       0.000414602636393273
0
1      0.33    9.90476108004614e-05    0.000205465162634886
0
2      0.66    0.000189524158483224    5.36960827613444e-05
0
3      0.99    0.000217272247631984    1.58350557529554e-05
0
4      1.32    0.000223805017124724    9.69052333311649e-06
0
5      1.65    0.000226786229815174    7.75517091819105e-06
0
6      1.98    0.000228656092085289    6.9159994121523e-06
0
7      2.31    0.000230044604256754    6.48414778140352e-06
0
8      2.64    0.000231176726862591    6.25651177390213e-06
0
9      2.97    0.000232136321762223    6.24603915931254e-06
0
10     3.3     0.000232952894235448    6.71528317192851e-06
0
-- vdssweep.nut file end --

$ nutconv -i vdssweep.nut -o vdssweep.csv
Processed 1 plots.

If you now look at vgsweep.csv it should contain:

; VDS,MN1:gm,MN1:gds,vdd!
0.000000e+00    0.000000e+00    4.146026e-04    0.000000e+00
3.300000e-01    9.904761e-05    2.054652e-04    0.000000e+00
6.600000e-01    1.895242e-04    5.369608e-05    0.000000e+00
9.900000e-01    2.172722e-04    1.583506e-05    0.000000e+00
1.320000e+00    2.238050e-04    9.690523e-06    0.000000e+00
1.650000e+00    2.267862e-04    7.755171e-06    0.000000e+00
1.980000e+00    2.286561e-04    6.915999e-06    0.000000e+00
2.310000e+00    2.300446e-04    6.484148e-06    0.000000e+00
2.640000e+00    2.311767e-04    6.256512e-06    0.000000e+00
2.970000e+00    2.321363e-04    6.246039e-06    0.000000e+00
3.300000e+00    2.329529e-04    6.715283e-06    0.000000e+00

And you can now use your favourite program to plot your data.
For example, with gnuplot:

$ cat << END | gnuplot
#set terminal png truecolor rounded small size 400,250 enhanced
set terminal postscript eps enhanced monochrome solid rounded size 8,4 "Helvetica" 30
set grid
set output "gmro_sweep.eps"
set title "Intrinsic Gain Plot"
set xlabel "Vds [V]"
set ylabel "gm*ro [1/V]"
plot 'vdssweep.csv' using 1:(\$2/\$3) with lines title "gm*ro(vds)"
END

Use the png terminal if you cannot open eps files and change the output file
extension to .png accordingly.

--

Copyright (c) 2012 - Jean-François Mousinho

